Title: * C:\Users\Cecilie\Dropbox\ST-375\rapportAfsnit\eProblemloesning\Samlet_system.asc
Date: Mon Dec 07 19:01:26 2015
Plotname: Transient Analysis
Flags: real forward
No. Variables: 228
No. Points:            0
Offset:   0.0000000000000000e+000
Command: Linear Technology Corporation LTspice IV
Backannotation: u1 1 2 3 4 5
Backannotation: u2 1 2 3 4 5
Backannotation: u3 1 2
Backannotation: u4 1 2 3 4 5
Backannotation: u5 1 2 3 4 5
Backannotation: u6 1 2 3 4 5
Backannotation: u7 1 2 3 4 5
Backannotation: u8 1 2 3 4 5
Backannotation: u9 3 2 7 4 6
Backannotation: u10 1 2 3 4 5
Backannotation: u11 1 2 3 4 5 6
Backannotation: u12 1 2 3 4 5 6
Backannotation: u13 1 2 3 4 5 6
Backannotation: u14 1 2 3 4 5 6
Backannotation: u15 1 2 3 4 5 6
Backannotation: u16 1 2 3 4 5 6
Backannotation: u17 1 2 3 4 5 6
Backannotation: u18 1 2 3 4 5 6
Backannotation: u19 1 2
Backannotation: u20 1 2 3 4 5
Backannotation: u21 1 2 3 4 5
Variables:
